LAMMPS data file via write_data, version 7 Feb 2024, timestep = 20000, units = real

9705 atoms
3 atom types

0 40 xlo xhi
0 40 ylo yhi
-5 100 zlo zhi

Masses

1 15.9994 
2 1.008 
3 1e-100 

Atoms # charge (atom-ID molecule-ID atom-type q x y z nx ny nz)

1	1	1	0	36.70498961	12.98341676	40.13778378	0	0	0
2	1	2	0.241	36.29266554	12.18793778	39.80098901	0	0	0
3	1	2	0.241	36.53492041	12.96163894	41.07950076	0	0	0
4	1	3	-0.241	36.41842174	13.55241179	39.84775153	0	0	0
5	1	3	-0.241	37.39330229	12.9781794	40.0105304	0	0	0
6	2	1	0	38.02095501	36.69708277	3.696641107	0	0	0
7	2	2	0.241	37.45308594	35.95733515	3.912341962	0	0	0
8	2	2	0.241	38.7815168	36.59035488	4.26794102	0	0	0
9	2	3	-0.241	37.69700244	37.30380351	3.826794407	0	0	0
10	2	3	-0.241	38.21198485	36.67427526	3.023601278	0	0	0
11	3	1	0	36.17939395	33.97889086	13.35854966	0	0	0
12	3	2	0.241	36.6885849	34.64588661	13.81906016	0	0	0
13	3	2	0.241	35.33450191	34.39594372	13.18986939	0	0	0
14	3	3	-0.241	36.0989243	33.4096235	13.75786721	0	0	0
15	3	3	-0.241	36.49143593	33.80036302	12.75792265	0	0	0
16	4	1	0	3.331966684	27.15281607	22.92480445	0	0	0
17	4	2	0.241	2.846211813	26.47437688	22.45577231	0	0	0
18	4	2	0.241	3.026824507	27.97502962	22.541292	0	0	0
19	4	3	-0.241	4.02091539	27.07540826	22.82809403	0	0	0
20	4	3	-0.241	3.18859223	27.13104586	23.60961466	0	0	0
21	5	1	0	10.85214121	8.313157031	39.48069415	0	0	0
22	5	2	0.241	9.935731119	8.087014018	39.63969275	0	0	0
23	5	2	0.241	10.93710741	8.314314419	38.527275	0	0	0
24	5	3	-0.241	11.27772848	7.836453797	39.76639452	0	0	0
25	5	3	-0.241	11.0000981	8.945059179	39.74299861	0	0	0
26	6	1	0	12.14472444	19.85417629	27.61320749	0	0	0
27	6	2	0.241	12.27956018	19.66196384	28.54116351	0	0	0
28	6	2	0.241	11.48267676	19.22302799	27.33111998	0	0	0
29	6	3	-0.241	12.73890096	19.76679525	27.25360493	0	0	0
30	6	3	-0.241	11.91422768	20.50952561	27.52727896	0	0	0
31	7	1	0	24.87921018	18.91605519	13.94047637	0	0	0
32	7	2	0.241	25.16821539	19.8195729	14.06838417	0	0	0
33	7	2	0.241	24.02634857	18.99510376	13.51315089	0	0	0
34	7	3	-0.241	24.8183819	18.58644625	14.5550112	0	0	0
35	7	3	-0.241	25.32899621	18.56787317	13.53248494	0	0	0
36	8	1	0	23.75455487	11.13027675	27.74799924	0	0	0
37	8	2	0.241	23.06326243	11.18295663	27.08802327	0	0	0
38	8	2	0.241	23.73500975	11.9819196	28.18452085	0	0	0
39	8	3	-0.241	24.37672846	11.02113033	27.44636656	0	0	0
40	8	3	-0.241	23.62272912	10.61560593	28.20377454	0	0	0
41	9	1	0	4.584498118	21.19923593	4.389741141	0	0	0
42	9	2	0.241	5.238383234	21.89138315	4.291786281	0	0	0
43	9	2	0.241	3.99116619	21.52374528	5.067147651	0	0	0
44	9	3	-0.241	4.886222185	20.60060879	4.591243821	0	0	0
45	9	3	-0.241	4.241003432	21.09655605	3.788522847	0	0	0
46	10	1	0	22.36895673	6.699660728	25.97563001	0	0	0
47	10	2	0.241	22.7042042	7.371343085	25.38176082	0	0	0
48	10	2	0.241	23.0621111	6.586741178	26.62602595	0	0	0
49	10	3	-0.241	22.25254322	6.101182414	25.63173062	0	0	0
50	10	3	-0.241	21.77596114	6.912694943	26.2805363	0	0	0
51	11	1	0	37.92000871	13.69058484	25.59094527	0	0	0
52	11	2	0.241	37.87988605	14.48623789	25.06032765	0	0	0
53	11	2	0.241	38.85529557	13.505147	25.67508787	0	0	0
54	11	3	-0.241	37.59099439	13.16250009	25.27020976	0	0	0
55	11	3	-0.241	37.63152354	13.79773274	26.21966685	0	0	0
56	12	1	0	19.39372113	2.681227417	5.697342005	0	0	0
57	12	2	0.241	18.46597412	2.809735467	5.499858233	0	0	0
58	12	2	0.241	19.81804458	2.639985092	4.840325462	0	0	0
59	12	3	-0.241	19.49114031	2.084790275	6.050566342	0	0	0
60	12	3	-0.241	19.64357209	3.217467177	6.07152994	0	0	0
61	13	1	0	22.74738256	5.823993865	6.750806755	0	0	0
62	13	2	0.241	23.60266544	5.661467023	7.148682249	0	0	0
63	13	2	0.241	22.86021845	6.640698122	6.264503457	0	0	0
64	13	3	-0.241	22.25501161	5.895305796	7.243229999	0	0	0
65	13	3	-0.241	22.57192871	5.301419215	6.319382516	0	0	0
66	14	1	0	16.0172557	10.33714025	10.12000176	0	0	0
67	14	2	0.241	16.03214345	11.19579555	10.54275239	0	0	0
68	14	2	0.241	16.52541122	9.773556011	10.70342223	0	0	0
69	14	3	-0.241	16.31318609	10.36819806	9.486396347	0	0	0
70	14	3	-0.241	15.36052117	10.1025374	10.0595332	0	0	0
71	15	1	0	22.97024973	2.360403331	30.18727846	0	0	0
72	15	2	0.241	23.05818328	1.55807816	29.67271973	0	0	0
73	15	2	0.241	23.15941821	3.064921961	29.56752249	0	0	0
74	15	3	-0.241	23.4286867	2.366531869	30.71623326	0	0	0
75	15	3	-0.241	22.32066306	2.42174341	30.44079325	0	0	0
76	16	1	0	23.37429029	15.23424714	11.16432337	0	0	0
77	16	2	0.241	24.01987244	14.53393744	11.06935659	0	0	0
78	16	2	0.241	22.57988982	14.88469429	10.76062873	0	0	0
79	16	3	-0.241	23.58640124	15.81290319	10.83241779	0	0	0
80	16	3	-0.241	23.26483677	15.37980415	11.8402141	0	0	0
81	17	1	0	34.46522459	7.120414937	16.84145711	0	0	0
82	17	2	0.241	34.73768708	6.300438116	16.42959441	0	0	0
83	17	2	0.241	34.53272789	7.773060097	16.14451645	0	0	0
84	17	3	-0.241	34.88942255	7.282575069	17.37414405	0	0	0
85	17	3	-0.241	33.80651245	7.073683034	17.07364159	0	0	0
86	18	1	0	24.76443994	35.50117305	37.54978935	0	0	0
87	18	2	0.241	25.0766201	34.82475125	38.15080997	0	0	0
88	18	2	0.241	25.55470256	35.97473604	37.2900746	0	0	0
89	18	3	-0.241	24.31399665	35.92944201	37.87178583	0	0	0
90	18	3	-0.241	24.45439942	35.21283954	36.99235428	0	0	0
91	19	1	0	21.93015197	29.1328295	27.42921901	0	0	0
92	19	2	0.241	22.58401075	29.83099395	27.39366926	0	0	0
93	19	2	0.241	21.09600313	29.57731337	27.27802887	0	0	0
94	19	3	-0.241	21.93449985	28.82152989	28.05617104	0	0	0
95	19	3	-0.241	22.05017126	28.65591083	26.93108334	0	0	0
96	20	1	0	9.189298928	11.6780053	17.13427011	0	0	0
97	20	2	0.241	8.458307939	11.90710701	16.56034219	0	0	0
98	20	2	0.241	9.275996575	10.72890796	17.04523961	0	0	0
99	20	3	-0.241	9.047376356	11.85233839	17.79718877	0	0	0
100	20	3	-0.241	9.775666018	12.00033747	16.92867146	0	0	0
101	21	1	0	32.2549048	19.87546949	11.50629097	0	0	0
102	21	2	0.241	33.00667673	20.17435907	12.01788911	0	0	0
103	21	2	0.241	31.49871304	20.0496379	12.06670873	0	0	0
104	21	3	-0.241	32.3069477	19.19153902	11.36655609	0	0	0
105	21	3	-0.241	32.20591077	20.23307651	10.90653102	0	0	0
106	22	1	0	15.15873467	11.36078815	26.38269176	0	0	0
107	22	2	0.241	15.84443185	11.72113561	25.82037712	0	0	0
108	22	2	0.241	14.54243331	12.08328637	26.50268192	0	0	0
109	22	3	-0.241	15.42445351	11.15760065	26.997593	0	0	0
110	22	3	-0.241	14.8451454	10.81701027	26.07291349	0	0	0
111	23	1	0	4.618552056	16.62513512	30.04891476	0	0	0
112	23	2	0.241	3.878368625	16.61215004	30.65570018	0	0	0
113	23	2	0.241	5.250008866	17.22005442	30.45334276	0	0	0
114	23	3	-0.241	4.420055832	16.86421536	29.42167072	0	0	0
115	23	3	-0.241	4.892049755	15.98462676	29.97860656	0	0	0
116	24	1	0	39.43434371	1.498809147	17.23376025	-1	0	0
117	24	2	0.241	39.97856867	1.500537059	16.44633097	-1	0	0
118	24	2	0.241	38.58858266	1.83883303	16.94169744	-1	0	0
119	24	3	-0.241	39.71054974	1.912499575	17.7262698	-1	0	0
120	24	3	-0.241	39.3661424	0.849372514	17.48590274	-1	0	0
121	25	1	0	26.58238473	18.10691686	26.22691645	0	0	0
122	25	2	0.241	26.82007228	18.20662794	25.30507535	0	0	0
123	25	2	0.241	25.63816611	17.95021914	26.21570455	0	0	0
124	25	3	-0.241	26.73227225	18.68916853	26.58540203	0	0	0
125	25	3	-0.241	26.91987436	17.56397554	26.5120667	0	0	0
126	26	1	0	3.079405026	27.14950566	3.325169837	0	0	0
127	26	2	0.241	3.99998673	26.93510087	3.174210937	0	0	0
128	26	2	0.241	2.683627951	26.32425718	3.605444927	0	0	0
129	26	3	-0.241	2.779397542	27.38033005	2.736348297	0	0	0
130	26	3	-0.241	3.017393339	27.6358518	3.824786868	0	0	0
131	27	1	0	30.30262969	29.30110887	37.7067756	0	0	0
132	27	2	0.241	31.23689303	29.46929568	37.82963279	0	0	0
133	27	2	0.241	29.88688274	30.15439776	37.83039284	0	0	0
134	27	3	-0.241	30.06963422	28.84146008	38.18051739	0	0	0
135	27	3	-0.241	30.17794372	29.05612634	37.06301154	0	0	0
136	28	1	0	27.13057065	13.74805179	6.312971214	0	0	0
137	28	2	0.241	27.53169097	14.09506541	7.109785312	0	0	0
138	28	2	0.241	26.21539599	13.59870976	6.550418	0	0	0
139	28	3	-0.241	27.43764696	13.14860353	6.122285283	0	0	0
140	28	3	-0.241	27.17809777	14.21114281	5.790206378	0	0	0
141	29	1	0	30.3132258	38.92165146	12.91472329	0	0	0
142	29	2	0.241	30.6298017	39.65288798	13.44510195	0	0	0
143	29	2	0.241	29.45915874	38.70570543	13.28911004	0	0	0
144	29	3	-0.241	30.74882208	38.3756608	12.96104042	0	0	0
145	29	3	-0.241	30.24840008	39.11218595	12.24428356	0	0	0
146	30	1	0	11.7909428	31.38863282	-0.063259397	0	0	0
147	30	2	0.241	12.03000662	32.23850624	0.306595081	0	0	0
148	30	2	0.241	11.25871155	31.60163909	-0.829801566	0	0	0
149	30	3	-0.241	11.42150478	31.01327585	0.397845672	0	0	0
150	30	3	-0.241	12.36261272	31.03079728	-0.250722544	0	0	0
151	31	1	0	17.79724812	32.54068101	28.37617835	0	0	0
152	31	2	0.241	17.71153568	32.67252724	29.3203704	0	0	0
153	31	2	0.241	16.90740288	32.64113557	28.03807628	0	0	0
154	31	3	-0.241	18.04388328	31.90048802	28.23718474	0	0	0
155	31	3	-0.241	18.22356925	33.02062896	28.09708079	0	0	0
156	32	1	0	13.73047416	28.22831618	5.324265462	0	0	0
157	32	2	0.241	13.15298715	28.76588552	5.866258668	0	0	0
158	32	2	0.241	13.15895708	27.87369872	4.643204991	0	0	0
159	32	3	-0.241	14.01470716	27.7121768	5.702163506	0	0	0
160	32	3	-0.241	14.23884374	28.61825224	5.042298386	0	0	0
161	33	1	0	39.4359451	34.93388008	26.013466	-1	0	0
162	33	2	0.241	0.152384871	35.47920677	26.33836834	0	0	0
163	33	2	0.241	38.72571246	35.07240631	26.640051	-1	0	0
164	33	3	-0.241	39.62498218	34.26005107	25.99881499	-1	0	0
165	33	3	-0.241	39.24262623	35.13597568	25.37176485	-1	0	0
166	34	1	0	36.05976952	8.564572979	36.29718656	0	0	0
167	34	2	0.241	35.17044661	8.766576917	36.00644983	0	0	0
168	34	2	0.241	35.94062504	7.978533343	37.04457589	0	0	0
169	34	3	-0.241	36.39509264	9.147650293	36.49102785	0	0	0
170	34	3	-0.241	36.42010438	8.246410029	35.78833853	0	0	0
171	35	1	0	18.23655221	12.68011989	13.07854263	0	0	0
172	35	2	0.241	18.33943658	13.63177289	13.07876551	0	0	0
173	35	2	0.241	17.29025849	12.54102773	13.11609586	0	0	0
174	35	3	-0.241	18.5504998	12.39723518	13.63658237	0	0	0
175	35	3	-0.241	18.50440275	12.40248628	12.4944443	0	0	0
176	36	1	0	33.2665512	25.55451531	34.94301372	0	0	0
177	36	2	0.241	33.33603073	26.3763681	34.45725735	0	0	0
178	36	2	0.241	33.0614814	24.89855277	34.27676437	0	0	0
179	36	3	-0.241	32.75515914	25.59131611	35.41958382	0	0	0
180	36	3	-0.241	33.87147573	25.40328058	35.26111679	0	0	0
181	37	1	0	21.10826876	24.94089573	36.71030912	0	0	0
182	37	2	0.241	21.7970536	24.83253314	37.36609999	0	0	0
183	37	2	0.241	20.49924122	24.22243228	36.88096787	0	0	0
184	37	3	-0.241	21.37244961	24.89296906	36.06385208	0	0	0
185	37	3	-0.241	20.78906996	25.55918108	36.78666714	0	0	0
186	38	1	0	35.79684463	8.619785551	30.14898518	0	0	0
187	38	2	0.241	35.00591485	8.439547309	30.6570924	0	0	0
188	38	2	0.241	35.50949981	9.222997041	29.46356741	0	0	0
189	38	3	-0.241	36.05085684	8.03048947	29.86933697	0	0	0
190	38	3	-0.241	36.2866446	8.917307483	30.55094524	0	0	0
191	39	1	0	18.11747682	28.43958256	33.3619354	0	0	0
192	39	2	0.241	18.61597049	27.97557278	34.03456284	0	0	0
193	39	2	0.241	18.76026152	29.00556353	32.93447541	0	0	0
194	39	3	-0.241	17.60633868	28.82031969	33.65136973	0	0	0
195	39	3	-0.241	17.84134172	27.98850396	32.90338039	0	0	0
196	40	1	0	1.270750811	4.63868831	14.09288829	0	0	0
197	40	2	0.241	1.326226221	4.269169733	13.21163511	0	0	0
198	40	2	0.241	2.173718821	4.638455155	14.41050031	0	0	0
199	40	3	-0.241	0.86441662	4.242105471	14.50229002	0	0	0
200	40	3	-0.241	1.015934411	5.290332191	14.07229584	0	0	0
201	41	1	0	9.994965159	30.13210319	1.792810052	0	0	0
202	41	2	0.241	9.33827507	30.81866657	1.909504212	0	0	0
203	41	2	0.241	10.57246507	30.46651895	1.106596803	0	0	0
204	41	3	-0.241	9.693546941	29.53300824	1.5922421	0	0	0
205	41	3	-0.241	10.35101011	30.02690933	2.386241969	0	0	0
206	42	1	0	36.65080831	25.15263869	22.79404553	0	0	0
207	42	2	0.241	37.01758515	25.68156765	22.08557	0	0	0
208	42	2	0.241	35.76670713	24.93540216	22.49840709	0	0	0
209	42	3	-0.241	36.62930121	25.51862065	23.39035907	0	0	0
210	42	3	-0.241	37.02917454	24.57164598	22.8903869	0	0	0
211	43	1	0	1.407062666	3.901580895	11.63223744	0	0	0
212	43	2	0.241	1.758653026	4.434730715	10.91924083	0	0	0
213	43	2	0.241	1.945709772	3.110333103	11.62837689	0	0	0
214	43	3	-0.241	0.735155484	3.744000017	11.5151725	0	0	0
215	43	3	-0.241	1.464868886	4.237202149	12.24380265	0	0	0
216	44	1	0	5.896860338	4.880941269	8.353002599	0	0	0
217	44	2	0.241	6.596754961	4.537680805	7.797531223	0	0	0
218	44	2	0.241	6.229246284	5.722492037	8.665317445	0	0	0
219	44	3	-0.241	5.772956495	4.449251621	8.889926317	0	0	0
220	44	3	-0.241	5.308679469	4.968901779	7.983812393	0	0	0
221	45	1	0	28.30098923	12.07170714	19.18555488	0	0	0
222	45	2	0.241	28.80586337	12.03676785	18.37308333	0	0	0
223	45	2	0.241	28.481592	12.94104372	19.54313736	0	0	0
224	45	3	-0.241	28.51164324	11.57303159	19.62933724	0	0	0
225	45	3	-0.241	27.61748156	11.99480124	19.05556276	0	0	0
226	46	1	0	12.33255192	35.15260039	13.65813493	0	0	0
227	46	2	0.241	12.0822744	36.07415704	13.72388585	0	0	0
228	46	2	0.241	12.52006581	34.88995847	14.55929331	0	0	0
229	46	3	-0.241	12.90046308	35.0786126	13.25564527	0	0	0
230	46	3	-0.241	11.80793619	34.77205758	13.39363407	0	0	0
231	47	1	0	12.634082	5.181837369	39.28887052	0	0	0
232	47	2	0.241	12.99072533	5.774523714	38.62723836	0	0	0
233	47	2	0.241	12.63458915	5.695559793	40.09653239	0	0	0
234	47	3	-0.241	13.03837629	4.614400034	39.35637011	0	0	0
235	47	3	-0.241	11.98341924	4.986055097	39.12063715	0	0	0
236	48	1	0	38.35739512	0.76517789	29.18098287	0	0	0
237	48	2	0.241	39.20766757	0.925796132	28.77175528	0	0	0
238	48	2	0.241	37.98622528	1.637474377	29.31349878	0	0	0
239	48	3	-0.241	38.43588602	0.434188221	29.79276732	0	0	0
240	48	3	-0.241	37.94841108	0.383645392	28.76007884	0	0	0
241	49	1	0	33.69351826	24.71231145	16.67449995	0	0	0
242	49	2	0.241	32.83498316	24.47592984	16.32340181	0	0	0
243	49	2	0.241	34.2800673	24.02590698	16.35663551	0	0	0
244	49	3	-0.241	33.68045328	24.72203805	17.37430699	0	0	0
245	49	3	-0.241	33.89420384	25.3391384	16.43615469	0	0	0
246	50	1	0	20.64290094	22.55040192	10.6382702	0	0	0
247	50	2	0.241	21.18337406	22.39505926	9.863682471	0	0	0
248	50	2	0.241	21.00335185	23.34765677	11.0264564	0	0	0
249	50	3	-0.241	20.69123907	22.01389679	11.08528347	0	0	0
250	50	3	-0.241	19.97309008	22.64410509	10.45780327	0	0	0
251	51	1	0	23.01066299	24.11818039	30.03060296	0	0	0
252	51	2	0.241	23.89838017	24.09730644	29.67318001	0	0	0
253	51	2	0.241	22.98985946	24.90472979	30.57570473	0	0	0
254	51	3	-0.241	22.88547962	23.54707168	30.41551744	0	0	0
255	51	3	-0.241	22.53783457	24.16111315	29.51622445	0	0	0
256	52	1	0	34.4591372	31.84931309	36.22914478	0	0	0
257	52	2	0.241	34.02771293	32.69615709	36.11531593	0	0	0
258	52	2	0.241	35.32405372	32.0655154	36.5775765	0	0	0
259	52	3	-0.241	34.51561514	31.5160829	35.61614961	0	0	0
260	52	3	-0.241	34.10362895	31.44923583	36.6803069	0	0	0
261	53	1	0	16.6006614	24.80731736	7.775411457	0	0	0
262	53	2	0.241	16.48346033	24.48034674	8.667365937	0	0	0
263	53	2	0.241	17.10305231	25.6153254	7.880077918	0	0	0
264	53	3	-0.241	15.98134628	24.93806021	7.476496281	0	0	0
265	53	3	-0.241	16.95426602	24.34474671	7.386840537	0	0	0
266	54	1	0	22.88812843	33.0621498	17.51528102	0	0	0
267	54	2	0.241	22.93840619	33.73289208	18.19631377	0	0	0
268	54	2	0.241	22.23450938	32.44151037	17.83748826	0	0	0
269	54	3	-0.241	23.50785072	32.74759419	17.43164935	0	0	0
270	54	3	-0.241	22.68460125	33.34214361	16.90686065	0	0	0
271	55	1	0	29.32267002	12.44403458	10.1279689	0	0	0
272	55	2	0.241	30.26430921	12.57738274	10.01951346	0	0	0
273	55	2	0.241	29.17602633	12.52347305	11.07052598	0	0	0
274	55	3	-0.241	29.13501173	11.80897413	9.901081763	0	0	0
275	55	3	-0.241	28.96192689	12.9323112	9.779478545	0	0	0
276	56	1	0	28.73687054	35.38928589	5.99367654	0	0	0
277	56	2	0.241	29.44041703	34.9385291	5.526697601	0	0	0
278	56	2	0.241	29.06690855	36.27816226	6.124834384	0	0	0
279	56	3	-0.241	28.6097553	35.07940225	6.608338268	0	0	0
280	56	3	-0.241	28.15100159	35.39694719	5.610669923	0	0	0
281	57	1	0	23.73439438	7.405502118	9.699739705	0	0	0
282	57	2	0.241	23.80191096	7.003940667	10.56600675	0	0	0
283	57	2	0.241	22.83205514	7.238511829	9.427477314	0	0	0
284	57	3	-0.241	24.1859963	7.109756626	9.25411037	0	0	0
285	57	3	-0.241	23.85866735	8.093444282	9.735614515	0	0	0
286	58	1	0	29.54369906	3.054718485	23.1174344	0	0	0
287	58	2	0.241	28.88868468	2.620219176	23.66369001	0	0	0
288	58	2	0.241	29.46733953	2.626536058	22.26475761	0	0	0
289	58	3	-0.241	30.1854083	2.965491388	23.38246831	0	0	0
290	58	3	-0.241	29.40650399	3.739038133	23.06377503	0	0	0
291	59	1	0	34.34772029	8.66049515	19.3227453	0	0	0
292	59	2	0.241	34.20011023	8.547125387	18.38381653	0	0	0
293	59	2	0.241	34.06737422	7.831948916	19.71152017	0	0	0
294	59	3	-0.241	33.96563353	9.191965387	19.57082652	0	0	0
295	59	3	-0.241	35.02501846	8.778774605	19.45416962	0	0	0
296	60	1	0	26.87226264	2.834398714	38.45550586	0	0	0
297	60	2	0.241	27.49212264	3.146041142	39.11496113	0	0	0
298	60	2	0.241	26.06192348	3.307166176	38.64542702	0	0	0
299	60	3	-0.241	26.77520254	2.143645625	38.51411218	0	0	0
300	60	3	-0.241	27.10071852	2.984052504	37.81098523	0	0	0
301	61	1	0	28.52637369	32.81456567	6.982443746	0	0	0
302	61	2	0.241	28.11130928	32.58399099	7.813578829	0	0	0
303	61	2	0.241	28.76162087	33.7373131	7.079524239	0	0	0
304	61	3	-0.241	28.07977878	32.72778461	6.450450113	0	0	0
305	61	3	-0.241	29.09700959	32.42387419	6.874138472	0	0	0
306	62	1	0	1.652799998	19.18147266	36.93701304	0	0	0
307	62	2	0.241	0.761216495	18.84118464	36.8627729	0	0	0
308	62	2	0.241	1.787323935	19.67992681	36.13098856	0	0	0
309	62	3	-0.241	2.114502023	18.6574097	36.9837511	0	0	0
310	62	3	-0.241	1.713330552	19.59642993	37.49749649	0	0	0
311	63	1	0	20.89026648	33.98399543	13.4509349	0	0	0
312	63	2	0.241	21.50025414	34.72012415	13.4034139	0	0	0
313	63	2	0.241	20.74483704	33.85292822	14.38789826	0	0	0
314	63	3	-0.241	21.17046702	33.41147249	13.16162478	0	0	0
315	63	3	-0.241	20.28960578	34.13913663	13.12669252	0	0	0
316	64	1	0	9.893120328	1.109056718	14.13557883	0	0	0
317	64	2	0.241	9.86863433	0.856411769	15.05850875	0	0	0
318	64	2	0.241	9.49018584	0.373291403	13.67457788	0	0	0
319	64	3	-0.241	10.553163	1.203062531	13.9222674	0	0	0
320	64	3	-0.241	9.527919582	1.696873134	14.03024379	0	0	0
321	65	1	0	22.04546404	27.95569443	29.65732027	0	0	0
322	65	2	0.241	22.07970952	28.28993882	28.7610298	0	0	0
323	65	2	0.241	22.95627548	27.7566526	29.87419248	0	0	0
324	65	3	-0.241	21.65125915	27.37823709	29.6910948	0	0	0
325	65	3	-0.241	21.78775257	28.43988674	30.09222003	0	0	0
326	66	1	0	6.897318511	29.54931234	19.69144407	0	0	0
327	66	2	0.241	6.724263886	29.04435066	20.48598449	0	0	0
328	66	2	0.241	7.851768441	29.566236	19.62096288	0	0	0
329	66	3	-0.241	6.642077576	30.19844478	19.75038756	0	0	0
330	66	3	-0.241	6.613539659	29.23683684	19.1330322	0	0	0
331	67	1	0	2.101938075	34.02798422	9.062409998	0	0	0
332	67	2	0.241	1.156519963	34.17722987	9.074200116	0	0	0
333	67	2	0.241	2.386223216	34.35700054	8.209673872	0	0	0
334	67	3	-0.241	2.245460665	33.34569482	9.124680605	0	0	0
335	67	3	-0.241	2.414476266	34.38036038	9.580238266	0	0	0
336	68	1	0	2.763610779	9.000048747	13.64183305	0	0	0
337	68	2	0.241	3.29958765	9.79097489	13.58358095	0	0	0
338	68	2	0.241	3.216744431	8.361947958	13.09071967	0	0	0
339	68	3	-0.241	2.117628194	9.12066798	13.40068435	0	0	0
340	68	3	-0.241	2.727288084	8.774007983	14.30333243	0	0	0
341	69	1	0	33.03672424	13.69863596	34.27494085	0	0	0
342	69	2	0.241	33.41582441	12.8608979	34.54084813	0	0	0
343	69	2	0.241	32.30251806	13.83095603	34.87465859	0	0	0
344	69	3	-0.241	32.81279129	13.66963684	33.61236385	0	0	0
345	69	3	-0.241	33.50561534	14.21424442	34.34039497	0	0	0
346	70	1	0	1.513748931	38.4337251	8.962124885	0	0	0
347	70	2	0.241	1.989606438	38.33511631	8.137464582	0	0	0
348	70	2	0.241	0.80676784	37.79056758	8.909638616	0	0	0
349	70	3	-0.241	1.255031041	39.08134543	9.022524897	0	0	0
350	70	3	-0.241	1.931899806	38.29778782	9.506795514	0	0	0
351	71	1	0	31.81561712	15.03830694	20.74364412	0	0	0
352	71	2	0.241	32.31134431	14.36573486	21.21068805	0	0	0
353	71	2	0.241	31.6822055	14.67390611	19.86863438	0	0	0
354	71	3	-0.241	32.17953997	15.6353265	20.710133	0	0	0
355	71	3	-0.241	31.20176282	15.15660895	21.05857701	0	0	0
356	72	1	0	38.10777068	23.33818363	24.35003973	0	0	0
357	72	2	0.241	39.02936303	23.28334483	24.09727715	0	0	0
358	72	2	0.241	37.69396077	23.83289258	23.642754	0	0	0
359	72	3	-0.241	38.03820105	23.67389223	24.96033064	0	0	0
360	72	3	-0.241	37.82706333	22.69904512	24.40200648	0	0	0
361	73	1	0	15.49632715	7.747567325	2.451868479	0	0	0
362	73	2	0.241	16.17822305	7.730999855	1.780323858	0	0	0
363	73	2	0.241	14.93047256	8.477825916	2.20134971	0	0	0
364	73	3	-0.241	15.77498179	7.85634831	3.084729825	0	0	0
365	73	3	-0.241	15.13762523	7.146470051	2.45506216	0	0	0
366	74	1	0	24.54784684	3.116366193	-0.493095271	0	0	0
367	74	2	0.241	25.29019164	2.706052715	-0.936711914	0	0	0
368	74	2	0.241	24.15811311	2.411674368	0.024346246	0	0	0
369	74	3	-0.241	24.08797731	3.364830546	-0.958692383	0	0	0
370	74	3	-0.241	24.76447926	3.637051483	-0.078423814	0	0	0
371	75	1	0	15.30450334	17.33658374	27.8294612	0	0	0
372	75	2	0.241	14.50264057	16.83245871	27.9676738	0	0	0
373	75	2	0.241	15.01532926	18.24898018	27.81763899	0	0	0
374	75	3	-0.241	15.60339256	17.16390471	27.22049291	0	0	0
375	75	3	-0.241	15.75822993	17.22763021	28.35124325	0	0	0
376	76	1	0	17.16656296	32.23153511	16.02847291	0	0	0
377	76	2	0.241	16.64684541	32.6778131	15.35992352	0	0	0
378	76	2	0.241	17.96227476	31.95895924	15.57155517	0	0	0
379	76	3	-0.241	16.82254827	31.67581296	16.27911605	0	0	0
380	76	3	-0.241	17.32019214	32.66743456	16.55419616	0	0	0
381	77	1	0	15.40637352	31.07970099	11.74624277	0	0	0
382	77	2	0.241	15.24876994	31.70473944	12.45385617	0	0	0
383	77	2	0.241	15.76255928	31.60945902	11.03299891	0	0	0
384	77	3	-0.241	14.80905989	30.77137767	11.55092675	0	0	0
385	77	3	-0.241	15.86670179	30.59142604	11.9454428	0	0	0
386	78	1	0	8.834701704	21.28678065	28.21996718	0	0	0
387	78	2	0.241	9.329772571	21.83485572	28.82885734	0	0	0
388	78	2	0.241	9.500644598	20.770167	27.76625022	0	0	0
389	78	3	-0.241	8.476716249	21.6819572	27.76645081	0	0	0
390	78	3	-0.241	8.391800097	20.86990146	28.56644244	0	0	0
391	79	1	0	2.797764968	2.699929562	33.05194579	0	0	0
392	79	2	0.241	2.311281017	3.036485162	32.29942179	0	0	0
393	79	2	0.241	3.434830345	3.385730273	33.25208017	0	0	0
394	79	3	-0.241	3.121782714	2.101128848	32.88932538	0	0	0
395	79	3	-0.241	2.369873589	2.593491484	33.59561398	0	0	0
396	80	1	0	20.60180166	21.69302946	4.120928716	0	0	0
397	80	2	0.241	20.14462271	21.05124494	3.577487169	0	0	0
398	80	2	0.241	21.04649983	22.26437028	3.494796233	0	0	0
399	80	3	-0.241	21.06511783	21.37714469	4.539915745	0	0	0
400	80	3	-0.241	20.14709495	22.05750749	4.508733769	0	0	0
401	81	1	0	18.64256263	23.63051672	1.702289373	0	0	0
402	81	2	0.241	18.80670407	24.55198203	1.902758671	0	0	0
403	81	2	0.241	17.74866481	23.47419867	2.006821861	0	0	0
404	81	3	-0.241	19.09527755	23.21892882	2.04234788	0	0	0
405	81	3	-0.241	18.69324607	23.51429301	1.013872034	0	0	0
406	82	1	0	8.484712989	1.3521902	30.19919778	0	0	0
407	82	2	0.241	7.66546498	1.839370089	30.28704499	0	0	0
408	82	2	0.241	8.922690011	1.465055488	31.04280091	0	0	0
409	82	3	-0.241	8.874658337	1.6153647	29.68085716	0	0	0
410	82	3	-0.241	8.357774861	0.67509432	30.07500811	0	0	0
411	83	1	0	30.57877999	26.78223256	23.89014443	0	0	0
412	83	2	0.241	30.41398872	27.1620207	23.02710707	0	0	0
413	83	2	0.241	31.39810046	27.18534788	24.17726929	0	0	0
414	83	3	-0.241	30.647476	26.08704924	23.84546562	0	0	0
415	83	3	-0.241	30.0585786	26.93735575	24.33209748	0	0	0
416	84	1	0	21.86348971	7.119084294	17.31722919	0	0	0
417	84	2	0.241	22.21105795	7.920175561	17.70924676	0	0	0
418	84	2	0.241	21.01562415	6.99189745	17.74287714	0	0	0
419	84	3	-0.241	22.28789676	6.577141293	17.44439694	0	0	0
420	84	3	-0.241	21.78419628	7.196156549	16.62602183	0	0	0
421	85	1	0	5.468280434	1.961611029	9.036060667	0	0	0
422	85	2	0.241	4.545062865	1.736371093	8.921321968	0	0	0
423	85	2	0.241	5.511555641	2.899369178	8.849069795	0	0	0
424	85	3	-0.241	5.868253088	1.601416784	8.588537287	0	0	0
425	85	3	-0.241	5.675307003	1.830298078	9.691722244	0	0	0
426	86	1	0	27.94940238	31.80676976	38.97123291	0	0	0
427	86	2	0.241	28.4945356	31.88750788	39.75388213	0	0	0
428	86	2	0.241	28.48428924	32.17367036	38.26730914	0	0	0
429	86	3	-0.241	27.35523596	32.16939923	39.04513375	0	0	0
430	86	3	-0.241	27.79855255	31.1353515	38.84302591	0	0	0
431	87	1	0	17.35601133	14.97494627	17.59132622	0	0	0
432	87	2	0.241	18.16123867	14.45746178	17.59821171	0	0	0
433	87	2	0.241	17.55566181	15.72201713	17.02718662	0	0	0
434	87	3	-0.241	17.19422132	15.1893614	18.2377358	0	0	0
435	87	3	-0.241	16.8246195	14.60215856	17.32932003	0	0	0
436	88	1	0	31.42195778	36.19122121	37.37114131	0	0	0
437	88	2	0.241	30.88025419	36.27263792	38.15609813	0	0	0
438	88	2	0.241	31.9010828	35.37174551	37.49413512	0	0	0
439	88	3	-0.241	31.86449248	36.73106223	37.31889277	0	0	0
440	88	3	-0.241	31.02259086	36.16050584	36.79707004	0	0	0
441	89	1	0	1.684956158	29.38905454	28.86782776	0	0	0
442	89	2	0.241	1.541782039	30.32985658	28.7647678	0	0	0
443	89	2	0.241	1.008185799	28.98259314	28.3265333	0	0	0
444	89	3	-0.241	1.612618911	29.19976104	29.53785051	0	0	0
445	89	3	-0.241	2.322905068	29.20975075	28.64229165	0	0	0
446	90	1	0	15.93991875	35.81122014	1.576778484	0	0	0
447	90	2	0.241	15.53830419	36.66116611	1.757128891	0	0	0
448	90	2	0.241	16.58412785	35.69708703	2.275489404	0	0	0
449	90	3	-0.241	16.25218426	35.81311857	0.950294772	0	0	0
450	90	3	-0.241	15.4603074	35.30174546	1.596870724	0	0	0
451	91	1	0	13.62167231	18.23763836	30.08562609	0	0	0
452	91	2	0.241	14.29782932	18.81789616	30.43539924	0	0	0
453	91	2	0.241	13.20807139	17.85675254	30.86028017	0	0	0
454	91	3	-0.241	13.90660822	17.73813597	29.68649693	0	0	0
455	91	3	-0.241	13.15562072	18.59961057	29.70910618	0	0	0
456	92	1	0	6.182182382	37.76057828	6.012253511	0	0	0
457	92	2	0.241	6.340009607	38.09065604	6.896769149	0	0	0
458	92	2	0.241	6.75192451	38.28927056	5.45358808	0	0	0
459	92	3	-0.241	5.511077469	37.84592933	5.832451986	0	0	0
460	92	3	-0.241	6.351397565	37.08283303	5.967278014	0	0	0
461	93	1	0	27.60678553	37.73593383	3.632375847	0	0	0
462	93	2	0.241	28.2157726	38.3349652	4.064261071	0	0	0
463	93	2	0.241	26.77304195	38.20607273	3.624024514	0	0	0
464	93	3	-0.241	27.5502439	37.13841647	3.992613597	0	0	0
465	93	3	-0.241	27.81836802	37.59591934	2.979977206	0	0	0
466	94	1	0	13.25043396	28.4838975	32.27555532	0	0	0
467	94	2	0.241	12.83299509	29.28798208	31.96665168	0	0	0
468	94	2	0.241	12.5334397	27.85393385	32.3483131	0	0	0
469	94	3	-0.241	13.55401319	28.58613095	32.89795645	0	0	0
470	94	3	-0.241	13.72940602	28.26155247	31.81605162	0	0	0
471	95	1	0	22.63243972	37.48396614	30.74460923	0	0	0
472	95	2	0.241	23.18395754	37.22453581	31.48268286	0	0	0
473	95	2	0.241	23.24830549	37.80569784	30.0862577	0	0	0
474	95	3	-0.241	22.18684151	37.98935161	30.93440638	0	0	0
475	95	3	-0.241	22.27275686	36.93560413	30.49981843	0	0	0
476	96	1	0	27.69759323	7.405501924	6.746826734	0	0	0
477	96	2	0.241	27.59753473	8.354673576	6.674093333	0	0	0
478	96	2	0.241	28.28544963	7.282566991	7.492172653	0	0	0
479	96	3	-0.241	27.9794584	7.14103086	6.163215328	0	0	0
480	96	3	-0.241	27.07923676	7.100020831	6.866458573	0	0	0
481	97	1	0	22.97941234	25.78934039	32.32438622	0	0	0
482	97	2	0.241	22.95938282	25.50931995	33.23949062	0	0	0
483	97	2	0.241	23.34997891	26.67148505	32.35140268	0	0	0
484	97	3	-0.241	22.33345722	25.80052449	32.05491992	0	0	0
485	97	3	-0.241	23.38356105	25.36280074	31.94396153	0	0	0
486	98	1	0	37.83494001	12.09879343	12.40513219	0	0	0
487	98	2	0.241	38.17758508	12.67798399	11.7244257	0	0	0
488	98	2	0.241	38.45864507	11.37350429	12.43943005	0	0	0
489	98	3	-0.241	37.19630291	11.86803412	12.2351675	0	0	0
490	98	3	-0.241	37.80697232	12.43033401	13.02100055	0	0	0
491	99	1	0	27.40816797	1.760515122	5.45208133	0	0	0
492	99	2	0.241	26.64154345	2.316604906	5.313230087	0	0	0
493	99	2	0.241	27.04559124	0.904710994	5.680917696	0	0	0
494	99	3	-0.241	27.8030674	2.009374131	5.973731429	0	0	0
495	99	3	-0.241	27.7922108	1.718404171	4.868357962	0	0	0
496	100	1	0	17.58005543	24.77955919	25.4864325	0	0	0
497	100	2	0.241	18.3749163	24.95584583	24.98309574	0	0	0
498	100	2	0.241	17.78337794	23.98955849	25.98721942	0	0	0
499	100	3	-0.241	17.03643232	24.66879041	25.0595843	0	0	0
500	100	3	-0.241	17.43511465	25.31367836	25.91503963	0	0	0
501	101	1	0	15.65866776	25.79356234	13.55942679	0	0	0
502	101	2	0.241	14.99099516	26.16245286	12.98118656	0	0	0
503	101	2	0.241	15.59108565	26.30868838	14.36335868	0	0	0
504	101	3	-0.241	16.29530069	25.85971748	13.27602388	0	0	0
505	101	3	-0.241	15.52922605	25.11759754	13.68714373	0	0	0
506	102	1	0	16.63423649	17.88121957	3.157570338	0	0	0
507	102	2	0.241	16.8572889	18.73615168	3.525765104	0	0	0
508	102	2	0.241	16.84333759	17.25822901	3.85355035	0	0	0
509	102	3	-0.241	17.01640677	17.75079831	2.585791214	0	0	0
510	102	3	-0.241	15.95395936	17.85164359	2.99526358	0	0	0
511	103	1	0	36.49521097	21.76100164	3.862682895	0	0	0
512	103	2	0.241	36.26878361	22.40785417	4.530920227	0	0	0
513	103	2	0.241	36.10300938	22.09989501	3.05797309	0	0	0
514	103	3	-0.241	36.22723751	21.13471742	4.02378376	0	0	0
515	103	3	-0.241	37.18992521	21.70730156	3.795723066	0	0	0
516	104	1	0	20.76570057	1.979168965	31.80876367	0	0	0
517	104	2	0.241	21.61443344	2.233632213	31.44664539	0	0	0
518	104	2	0.241	20.28208852	1.626470054	31.06180213	0	0	0
519	104	3	-0.241	20.43498845	2.534414745	32.07770012	0	0	0
520	104	3	-0.241	20.84454612	1.491687816	32.30488936	0	0	0
521	105	1	0	14.20286878	29.04051036	36.33438805	0	0	0
522	105	2	0.241	15.13521678	28.88045753	36.18830943	0	0	0
523	105	2	0.241	14.10999673	29.06556773	37.28674071	0	0	0
524	105	3	-0.241	13.81746456	28.52365464	36.06177303	0	0	0
525	105	3	-0.241	14.00918817	29.65048826	36.0508215	0	0	0
526	106	1	0	36.27725852	29.99694191	9.004968686	0	0	0
527	106	2	0.241	37.07076262	30.04300668	8.471622678	0	0	0
528	106	2	0.241	35.68061723	29.44420072	8.500265787	0	0	0
529	106	3	-0.241	36.00441355	30.63481351	9.09808499	0	0	0
530	106	3	-0.241	36.41430417	29.70858435	9.627916192	0	0	0